                         Program Version 5.0.4 -  RELEASE  -
|  1> !pal6 tightscf STO-3G scs/sos-b2plyp21 defgrid1 uhf d3bj autoaux
|  2> %method
|  3>    D3s6 0.61
|  4>    D3s8 0
|  5>    D3a1 0
|  6>    D3a2 6.2
|  7> end
|  8> %mp2 Density unrelaxed end
|  9> #[NH2]
| 10> *xyz 0 2
| 11> N  -0.000000000   0.400600000   0.000000000
| 12> H  -0.831600000  -0.200300000   0.000000000
| 13> H   0.831600000  -0.200300000   0.000000000
| 14> **                         ****END OF INPUT****

CARTESIAN COORDINATES (ANGSTROEM)
---------------------------------
  N     -0.000000    0.400600    0.000000
  H     -0.831600   -0.200300    0.000000
  H      0.831600   -0.200300    0.000000

 Total Charge           Charge          ....    0
 Multiplicity           Mult            ....    2
 Number of Electrons    NEL             ....    9
 Basis Dimension        Dim             ....    7

ORBITAL ENERGIES
----------------
                 SPIN UP ORBITALS
  NO   OCC          E(Eh)            E(eV)
   0   1.0000     -14.619830      -397.8258
   1   1.0000      -0.934446       -25.4276
   2   1.0000      -0.496764       -13.5176
   3   1.0000      -0.314982        -8.5711
   4   1.0000      -0.295278        -8.0349
   5   0.0000       0.458650        12.4805
   6   0.0000       0.549217        14.9450

                 SPIN DOWN ORBITALS
  NO   OCC          E(Eh)            E(eV)
   0   1.0000     -14.600413      -397.2974
   1   1.0000      -0.848917       -23.1002
   2   1.0000      -0.480283       -13.0692
   3   1.0000      -0.255270        -6.9463
   4   0.0000       0.146862         3.9963
   5   0.0000       0.489952        13.3323
   6   0.0000       0.567708        15.4481

MULLIKEN ATOMIC CHARGES AND SPIN DENSITIES
------------------------------------------
   0 N :   -0.293264    1.101928
   1 H :    0.146632   -0.050964
   2 H :    0.146632   -0.050964
Sum of atomic charges       :   -0.0000000

LOEWDIN ATOMIC CHARGES AND SPIN DENSITIES
-----------------------------------------
   0 N :   -0.185060    1.076919
   1 H :    0.092530   -0.038460
   2 H :    0.092530   -0.038460

  Mayer bond orders larger than 0.100000
B(  0-N ,  1-H ) :   0.9523 B(  0-N ,  2-H ) :   0.9523

MP2 TOTAL ENERGY:      -55.036370257 Eh
Dispersion correction           -0.000198602
FINAL SINGLE POINT ENERGY       -55.036568858882

DIPOLE MOMENT
-------------
                                X             Y             Z
Electronic contribution:      0.00000       0.28951       0.00000
Nuclear contribution   :      0.00000      -0.98522       0.00000
                        -----------------------------------------
Total Dipole Moment    :      0.00000      -0.69571       0.00000
                        -----------------------------------------
Magnitude (a.u.)       :      0.69571
Magnitude (Debye)      :      1.76836

Rotational constants in cm-1:    26.491141    12.091423     8.302082
Rotational constants in MHz : 794184.436816 362491.739989 248890.142415

                             ****ORCA TERMINATED NORMALLY****
TOTAL RUN TIME: 0 days 0 hours 0 minutes 1 seconds 572 msec
